# vtk DataFile Version 2.0
Comment goes here
ASCII

DATASET STRUCTURED_POINTS
DIMENSIONS    2   2   1

ORIGIN    0.000   0.000   0.000
SPACING    1.000   1.000   1.000

POINT_DATA   4
SCALARS scalars float
LOOKUP_TABLE default

1.000000 
2.000000 
3.000000 
1.000000 
